LIGGGHTS (Version LIGGGHTS-PUBLIC 3.8.0, compiled 2024-03-31-20:10:17 by buildd, git commit unknown)
